 Gaussian 09, Revision C.01,
 Gaussian 09:  EM64L-G09RevC.01 23-Sep-2011

 ----------------
 # PM3 Opt NoSymm
 ----------------

 99/9=1/99;
 -----
 Title
 -----
 Charge =  0 Multiplicity = 1

 SCF Done:  E(RPM3) =  0.687949781624E-02 A.U. after   11 cycles
 SCF Done:  E(RPM3) =  0.355317151636E-02 A.U. after   10 cycles
 SCF Done:  E(RPM3) =  0.278255456220E-02 A.U. after   10 cycles
 SCF Done:  E(RPM3) =  0.270558228357E-02 A.U. after   10 cycles
 SCF Done:  E(RPM3) =  0.269669609455E-02 A.U. after    9 cycles
 SCF Done:  E(RPM3) =  0.269576852250E-02 A.U. after    8 cycles
 Optimization completed.
    -- Stationary point found.

                          Input orientation:
 ---------------------------------------------------------------------
 Center     Atomic      Atomic             Coordinates (Angstroms)
 Number     Number       Type             X           Y           Z
 ---------------------------------------------------------------------
      1          6           0       -1.816414    3.607131    0.611735
      2          6           0       -1.800291    2.276911    0.458406
      3          6           0       -0.643627    4.309458   -0.012458
      4          6           0       -0.612310    1.763163   -0.305187
      5          6           0        0.634871    3.733554    0.619499
      6          6           0        0.653425    2.211558    0.444903
      7          1           0        0.680500    4.006756    1.690142
      8          1           0        1.524991    4.195633    0.152161
      9          1           0        0.707987    1.704128    1.426001
     10          1           0        1.553368    1.888807   -0.111998
     11          6           0       -0.617101    2.440811   -1.685898
     12          1           0       -0.636704    0.656706   -0.409791
     13          6           0       -0.636226    3.962762   -1.510965
     14          1           0        0.270589    2.120744   -2.263652
     15          1           0       -1.494013    2.101206   -2.267867
     16          1           0       -1.523234    4.403695   -2.002708
     17          1           0        0.241316    4.427499   -1.998965
     18          1           0       -0.695104    5.409854    0.136747
     19          1           0       -2.588455    4.173557    1.133148
     20          1           0       -2.556867    1.588378    0.835596
 ---------------------------------------------------------------------

 Alpha  occ. eigenvalues --   -1.57640  -1.12883  -1.12309  -1.10071  -0.79870
 Alpha  occ. eigenvalues --   -0.78018  -0.76139  -0.66852  -0.61477  -0.58072
 Alpha  occ. eigenvalues --   -0.57462  -0.53284  -0.49820  -0.49597  -0.49547
 Alpha  occ. eigenvalues --   -0.49260  -0.47962  -0.45965  -0.41908  -0.40717
 Alpha  occ. eigenvalues --   -0.40224  -0.36411
 Alpha virt. eigenvalues --    0.04213   0.12731   0.12788   0.13026   0.13370
 Alpha virt. eigenvalues --    0.13854   0.13964   0.14068   0.14738   0.15326
 Alpha virt. eigenvalues --    0.15645   0.16233   0.16446   0.16637   0.17479

 Mulliken atomic charges:
              1
     1  C   -0.147539
     2  C   -0.147539
     3  C   -0.044269
     4  C   -0.044269
     5  C   -0.092495
     6  C   -0.092486
     7  H    0.050537
     8  H    0.049771
     9  H    0.050537
    10  H    0.049771
    11  C   -0.092495
    12  H    0.067681
    13  C   -0.092486
    14  H    0.049771
    15  H    0.050537
    16  H    0.050537
    17  H    0.049771
    18  H    0.067681
    19  H    0.108492
    20  H    0.108492
 Sum of Mulliken atomic charges =   0.00000

 Dipole moment (field-independent basis, Debye):
    X=              0.1546    Y=              0.0124    Z=             -0.0909  Tot=              0.1798
 N-N= 2.225541246012D+02 E-N=-3.871807210806D+02  KE=-2.841241092153D+01
 1\1\GINC-WOLF01\FOpt\RPM3\ZDO\C8H12\KULHANEK\15-Oct-2012\0\\# PM3 Opt
 NoSymm\\Title\\0,1\C,-1.8164144496,3.6071306797,0.6117351938\C,-1.8002
 910967,2.2769109625,0.4584059513\C,-0.6436269988,4.3094577894,-0.01245
 82275\C,-0.6123095778,1.7631630469,-0.3051870446\C,0.634870606,3.73355
 36664,0.6194994804\C,0.6534245148,2.2115576085,0.4449026426\H,0.680499
 6089,4.0067560976,1.6901417145\H,1.5249907478,4.1956327907,0.152161435
 4\H,0.7079872889,1.7041280224,1.4260011838\H,1.5533681564,1.8888068386
 ,-0.1119978688\C,-0.6171005159,2.4408113915,-1.6858977528\H,-0.6367043
 364,0.6567060125,-0.4097905875\C,-0.6362260772,3.9627617386,-1.5109649

 Normal termination of Gaussian 09 at Mon Oct 15 16:12:17 2012.
